  105.773  105.823  105.865  105.915  105.870  105.899  106.550  106.662  106.522  106.560  107.227  107.118  107.049  106.689  106.119  106.936  107.731  108.117  108.109  107.964  108.307  108.589  109.006  109.764  109.816  109.771  109.616  109.393  109.079  109.069  109.049  108.858  108.324  109.187  109.538  109.566  109.468  108.758  108.846  109.072  109.281  109.926  110.859  111.069  110.653  110.071  110.232  110.510  110.358  109.517  108.953  108.816  108.699  108.404  107.979  108.435  108.972  109.533  110.297  109.658  109.228  108.686  107.886  107.123  106.472  107.221  109.040  110.160  108.875  107.586  106.846  107.081  108.171  108.644  108.705  108.546  108.120  108.185  107.742  106.977  106.915  107.255  107.753  108.067  107.998  107.644  107.259  106.822  106.405  106.275  106.865  107.206  107.383  107.772  106.978  107.211  107.755  107.989  106.592  106.673  107.110  107.583  108.374  107.328  107.111  107.655  108.350  108.633  108.250  108.143  108.951  110.562  112.429  112.298  110.547  109.982  110.130  110.288  110.529  111.020  111.582  111.394  110.697  109.842  110.531  112.067  112.574  112.149  112.173  112.818  113.005  112.957  112.914  112.939  113.540  114.232  114.590  113.836  112.673  112.420  112.446  111.326  111.329  110.971  110.737  111.049  111.832  111.802  110.281  107.864  107.637  107.707  108.236  108.771  108.791  108.471  108.175  107.508  106.349  106.334  106.393  106.299  106.401  107.621  106.872  106.434  106.419  106.626  105.792  104.967  104.129  103.356  103.628  103.295  102.732  101.980  100.956  101.957  102.328  102.258  102.217  101.812  100.838  100.580  101.254  101.070  100.988  100.763  100.461  100.239  100.628  100.663  100.487  100.339  100.377   99.690   98.770   97.944   97.728   98.012   98.152   98.020   97.629   96.885   96.115   96.023   96.995   97.687   97.435   97.024   96.781   96.978   97.064   96.724   96.167   95.801   95.541   95.179   95.172   95.558   94.152   94.046   94.767   95.542   94.433   93.723   93.432   93.319   93.132   92.382   91.675   91.562   92.050   91.609   90.048   89.551   89.689   88.955   87.809   87.571   88.057   88.936   89.429   89.671   89.449   89.029   89.846   89.553   89.306   89.209   89.045   87.854   87.613   87.660   87.409   86.859   86.364   85.757   85.298   85.796   85.744   85.684   85.361   84.233   83.529   82.834   82.307   82.021   81.743   82.081   81.645   80.593   80.420   80.240   79.021   77.610   77.191   77.664   78.396   78.195   76.981   77.728   77.802   77.704   77.699   78.085   78.104   77.960   77.794   77.683   77.101   76.368   75.770   75.406   75.134   74.589   74.333   74.314   74.274   74.064   73.753   72.326   68.716   72.071   72.450   72.227   71.854   71.207   70.905   70.729   70.423   69.700   69.489   69.335   69.157   68.951   69.127   68.703   68.442   68.347   67.849   67.141   66.973   67.158   67.314   66.726   65.720   65.013   64.839   64.544   64.115   63.698   63.366   63.199   63.272   63.050   62.777   62.685   62.453   62.168   61.746   61.413   62.070   62.097   61.981   61.549   60.482   59.539   59.374   59.517   59.569   59.244   59.204   59.086   58.885   58.840   58.953   58.800   58.535   58.405   58.270   58.448   58.374   57.827   57.542   57.303   57.322   57.518   57.595   57.643   57.762   57.972   58.325   58.839   59.106   59.215   59.232   59.139   59.142   59.154   59.114   59.004   58.480   58.680   59.214   59.656   59.448   59.098   58.715   58.415   58.489   58.499   58.418   58.456   58.874   58.801   58.637   58.534   58.532   58.282   58.072   58.005   58.171   58.698   58.768   58.476   58.026   57.668   57.614   57.822   57.782   57.264   56.601   56.344   56.141   56.020   56.265   56.738   57.208   57.347   56.957   56.921   56.085   55.647   55.987   56.395   56.867   56.671   56.022   55.614   55.747   55.945   55.851   55.234   54.862   55.241   55.838   56.318   56.417   56.372   56.493   56.785   57.183   57.125   57.210   57.432   57.755   58.112   58.061   58.010   58.066   58.173   58.514   58.550   58.437   58.458   57.848   57.088   56.618   56.580   56.454   56.207   55.156   53.862   53.868   53.313   52.893   52.587   52.263   52.442   52.180   51.724   51.408   52.063   50.843   50.434   50.852   51.082   50.765   50.237   49.829   49.754   49.298   49.294   49.363   49.461   49.909   50.380   50.531   50.327   49.801   49.355   49.081   48.902
  106.788  106.955  106.997  106.983  106.804  106.476  106.367  106.332  106.446  106.994  108.136  107.489  107.279  107.071  106.616  107.565  108.163  108.448  108.578  108.867  109.064  109.133  109.374  110.174  110.178  110.073  110.005  109.988  109.359  109.216  109.060  108.775  108.487  109.123  109.401  109.323  109.021  108.685  108.864  109.067  109.131  109.651  111.007  111.627  111.418  111.002  110.710  110.578  110.303  109.644  109.038  109.566  109.816  109.194  108.230  109.114  109.529  109.767  111.088  110.015  109.633  109.604  109.475  108.335  107.490  107.964  109.515  110.400  109.328  108.011  107.055  106.967  108.030  108.416  108.683  109.109  108.587  108.772  108.151  106.900  106.900  107.366  107.715  107.960  108.232  108.043  107.917  107.829  107.677  106.925  107.345  107.890  108.281  108.420  108.596  108.166  107.654  107.774  107.497  107.478  107.499  107.785  109.697  108.959  108.479  108.497  108.494  109.186  109.010  108.842  109.405  110.490  112.053  112.116  110.795  110.779  111.119  111.425  111.689  111.883  112.077  111.987  111.799  111.818  112.375  113.004  113.357  113.586  113.970  114.115  114.129  113.965  113.508  113.574  114.099  114.593  114.635  113.590  112.978  112.821  112.717  111.888  111.907  111.876  112.014  112.583  113.283  113.857  112.928  110.631  111.151  111.286  110.712  109.657  108.930  108.928  108.920  108.211  106.609  106.921  106.584  106.398  106.714  107.699  107.555  107.391  107.218  106.783  105.914  105.396  104.769  103.815  104.388  103.674  103.070  102.767  101.425  102.205  102.441  102.240  102.195  101.893  100.958  100.535  101.143  101.332  100.941  100.656  100.699  101.016  101.192  100.998  100.931  101.551  100.759  100.037   99.255   98.384   97.795   98.454   98.810   98.545   97.822   97.548   97.035   97.104   98.414   98.578   98.131   97.402   96.778   97.186   97.766   97.480   96.650   96.203   96.235   95.838   95.655   96.000   95.306   95.374   95.751   95.838   94.719   94.436   94.560   94.695   94.341   93.538   93.230   93.070   92.709   92.227   91.851   91.430   90.868   90.466   89.974   89.913   90.050   90.041   90.119   90.380   90.337   89.899   90.176   89.284   88.737   88.705   88.666   87.363   87.146   87.417   87.350   86.346   85.596   85.244   85.321   85.798   85.810   86.194   86.212   84.284   83.622   83.121   82.818   82.696   82.453   82.661   82.193   81.122   80.862   80.883   79.830   78.355   77.591   77.396   77.679   77.676   77.171   77.992   78.028   77.858   77.784   78.129   78.158   78.074   77.946   77.806   77.016   76.233   75.730   75.560   75.164   74.680   74.509   74.524   74.235   73.781   73.442   72.240   68.649   72.295   72.675   72.345   71.978   71.289   70.932   70.755   70.489   69.780   69.282   69.055   68.870   68.646   69.031   68.595   68.373   68.493   68.156   67.411   67.205   67.343   67.442   66.863   65.846   65.027   64.754   64.440   63.974   63.683   63.574   63.357   63.347   63.182   62.983   62.902   62.462   62.247   62.110   62.044   62.370   62.404   62.106   61.498   60.721   60.144   59.934   59.826   59.588   59.388   59.174   59.049   59.056   59.052   59.019   58.860   58.683   58.677   58.463   58.401   58.102   57.400   57.256   57.221   57.315   57.484   57.556   57.705   57.748   57.828   58.166   58.840   59.174   59.301   59.293   59.239   59.240   59.182   59.085   59.040   58.730   58.669   58.906   59.485   59.634   59.538   59.260   58.881   58.645   58.466   58.543   58.905   59.448   59.279   59.131   58.983   58.768   58.684   58.543   58.548   58.758   59.035   58.837   58.414   57.943   57.620   57.603   57.812   57.946   57.766   57.019   56.464   56.012   55.891   56.816   57.732   58.050   57.865   57.399   56.541   55.961   55.872   56.261   56.869   57.160   56.851   56.198   55.889   55.947   56.195   56.274   55.829   55.552   55.631   55.845   56.102   56.333   56.566   56.772   56.986   57.339   57.324   57.393   57.599   57.939   58.005   57.968   58.053   58.345   58.826   59.057   58.727   58.195   58.148   57.586   57.018   56.656   56.642   57.097   56.474   55.160   53.876   54.215   53.258   52.939   52.872   52.208   52.685   52.399   51.901   51.657   52.490   51.209   50.799   51.341   51.272   50.719   50.042   49.577   49.617   49.387   49.292   49.239   49.317   50.090   50.558   50.646   50.361   49.740   49.172   48.919   48.829
  107.040  107.194  107.198  106.974  106.692  106.576  107.173  106.694  107.164  108.452  108.889  107.917  107.736  107.668  106.980  108.344  108.530  108.463  108.728  109.681  109.510  109.208  109.280  110.252  110.286  110.187  110.204  110.428  109.594  109.348  109.087  108.738  108.697  109.181  109.447  109.352  108.823  108.655  108.891  109.179  109.329  109.876  111.054  111.680  111.646  111.553  111.529  111.391  111.034  110.415  109.519  109.869  110.326  110.182  109.134  109.658  109.834  109.836  111.197  110.297  110.036  110.260  110.509  109.784  109.403  109.424  109.614  109.255  108.826  108.177  107.436  106.933  107.577  107.845  108.299  109.338  108.734  109.188  108.613  106.988  107.080  107.578  107.759  107.869  108.432  108.473  108.531  108.621  108.653  107.672  107.901  108.583  109.242  109.063  109.368  108.778  107.977  108.013  108.061  108.271  108.701  109.378  110.126  109.499  109.084  109.262  110.006  110.378  110.323  110.097  109.920  110.009  110.795  111.440  111.726  112.167  111.999  112.215  112.762  112.956  113.150  112.884  113.103  114.639  114.864  114.044  113.944  115.094  115.816  115.468  115.227  114.957  114.226  114.307  114.763  115.133  115.003  113.821  113.554  113.604  113.565  112.759  112.762  112.985  113.353  113.807  114.664  115.235  114.358  111.955  112.287  112.303  111.710  110.790  110.470  110.147  109.301  108.348  107.966  107.115  106.860  107.040  107.456  107.818  108.178  108.358  108.096  106.998  105.753  105.517  105.453  104.712  105.285  103.780  102.973  103.490  101.983  102.331  102.393  102.149  102.148  102.069  101.310  100.847  101.356  101.702  101.313  101.046  101.148  101.635  101.702  101.498  101.476  102.192  100.868  100.009   99.530   99.385   99.466  100.072  100.138   99.526   98.755   98.764   98.479   98.633  100.195  100.567   99.665   98.173   96.828   97.320   98.079   97.858   96.932   96.692   97.110   97.154   96.917   96.574   97.167   97.836   97.420   95.688   94.735   95.012   95.715   96.198   95.546   94.654   94.639   94.503   93.555   93.192   93.436   93.011   91.921   91.527   91.711   91.805   91.589   91.042   90.938   91.115   90.995   90.345   90.774   89.694   88.826   88.688   89.140   87.782   87.151   87.195   87.490   86.617   86.129   85.858   85.736   86.213   86.244   86.645   86.743   84.483   83.713   83.510   83.539   83.457   83.131   82.831   82.301   81.566   80.973   81.220   80.845   79.850   78.712   77.320   76.842   76.983   77.466   78.232   78.215   77.998   77.910   78.190   78.208   78.097   77.900   77.687   76.865   76.147   75.776   75.804   75.331   74.802   74.573   74.569   74.261   73.796   73.418   72.292   68.555   72.185   72.578   72.256   72.100   71.728   71.254   70.752   70.181   69.430   69.352   69.115   68.815   68.672   68.766   68.232   67.952   68.180   68.175   67.744   67.279   66.906   66.800   66.719   65.917   65.028   64.603   64.289   63.798   63.651   63.836   63.534   63.430   63.308   63.186   63.124   62.515   62.329   62.385   62.519   62.543   62.578   62.297   61.683   60.892   60.322   60.004   59.800   59.533   59.428   59.175   59.021   59.068   59.131   59.079   59.015   58.878   58.430   58.286   58.241   58.084   57.675   57.531   57.397   57.321   57.320   57.391   57.825   58.067   58.093   58.054   58.668   59.202   59.454   59.299   59.286   59.098   58.956   58.957   59.077   59.056   58.726   58.532   59.211   59.817   60.016   59.825   59.308   58.769   58.500   58.688   59.206   59.738   59.517   59.385   59.248   58.922   58.924   58.887   58.913   59.002   59.008   58.739   58.359   57.976   57.730   57.633   57.736   57.850   57.781   57.344   57.110   56.879   56.666   56.926   57.645   58.015   57.935   57.474   56.218   56.170   56.606   56.827   57.351   57.277   56.954   56.611   56.426   56.074   56.179   56.457   56.381   56.353   55.958   55.624   55.686   56.125   56.702   57.046   57.181   57.497   57.513   57.557   57.736   58.095   57.941   57.918   58.093   58.488   59.096   59.185   58.685   58.009   57.972   57.500   57.096   56.876   56.914   57.216   56.380   55.243   54.396   54.519   53.368   53.089   53.348   52.960   53.138   53.054   52.860   52.694   52.779   51.627   51.157   51.560   51.490   51.217   50.560   49.824   49.467   49.569   49.474   49.314   49.320   50.343   50.697   50.640   50.274   49.653   48.968   48.705   48.705
  107.142  107.299  107.303  106.953  106.647  106.749  107.859  107.177  107.762  109.522  109.376  108.420  108.132  108.009  107.360  108.629  108.915  108.938  109.136  109.802  109.857  109.639  109.558  110.506  110.616  110.378  110.217  110.531  109.982  109.506  109.197  109.136  109.220  109.665  110.045  110.054  109.234  108.761  108.930  109.419  109.910  110.582  111.091  111.361  111.512  111.877  112.452  112.492  112.017  111.362  110.104  110.144  110.746  111.110  110.008  110.127  110.081  109.975  111.367  110.701  110.516  110.792  111.053  110.876  110.923  110.858  110.456  109.733  109.076  108.581  108.320  108.185  108.099  107.978  108.312  109.516  108.551  108.548  108.607  108.495  108.961  108.626  108.129  107.923  108.569  108.989  109.096  109.072  109.089  108.482  108.555  109.284  110.266  109.714  109.660  109.151  108.493  108.446  108.532  109.028  110.004  111.238  110.537  109.917  109.642  109.926  111.108  111.222  111.288  111.203  110.548  110.132  110.401  111.295  112.658  113.356  113.022  113.052  113.595  113.975  114.350  114.027  113.869  114.934  115.511  115.150  115.208  116.104  116.029  116.115  115.992  115.654  115.464  115.428  115.740  116.066  116.021  114.880  114.612  114.850  115.108  113.970  113.856  114.241  114.760  114.880  115.994  116.398  115.409  112.946  112.988  112.961  112.556  111.918  112.002  111.506  110.004  108.628  109.283  107.917  107.646  107.940  108.361  108.381  108.670  108.829  108.638  107.743  106.440  106.098  105.972  104.997  105.840  104.952  104.173  104.237  103.471  103.023  102.909  102.989  102.656  102.947  102.748  102.497  102.667  102.433  102.486  102.387  101.992  102.105  102.133  102.128  102.174  102.350  100.799   99.789   99.648  100.528  101.564  102.015  101.630  100.585   99.807   99.999   99.869   99.974  101.423  101.791  100.672   98.815   97.015   97.473   98.220   98.107   97.301   97.389   97.813   97.828   97.438   96.820   97.569   98.045   97.678   96.430   95.683   95.560   96.227   97.104   96.485   95.450   94.958   94.931   95.263   95.439   94.692   93.653   92.775   91.841   92.796   93.122   92.560   91.930   91.846   91.886   91.536   90.523   91.450   90.366   89.147   88.764   89.756   88.355   87.268   87.004   87.541   86.859   86.607   86.427   86.116   86.673   86.759   87.104   87.274   85.248   84.283   83.955   83.839   83.431   83.148   82.977   82.809   82.494   81.622   81.310   80.927   80.298   79.254   77.480   76.825   77.131   77.962   78.314   78.162   78.063   78.247   78.320   78.246   77.897   77.390   77.052   76.565   76.120   75.942   76.142   75.628   74.963   74.565   74.494   74.311   73.940   73.519   72.394   68.541   72.010   72.429   72.131   72.188   72.091   71.491   70.714   69.928   69.255   69.453   69.239   68.847   68.758   68.461   67.965   67.705   67.811   67.859   67.653   67.220   66.735   66.608   66.474   66.019   65.384   64.679   64.410   64.112   63.902   63.761   63.533   63.397   63.306   63.264   63.285   62.698   62.463   62.473   62.560   62.419   62.511   62.536   62.230   61.024   60.102   59.632   59.492   59.428   59.406   59.186   59.002   59.020   59.166   59.136   59.176   59.103   58.197   58.122   58.141   58.115   57.950   57.776   57.562   57.357   57.208   57.269   57.826   58.267   58.458   58.391   58.650   59.086   59.381   59.235   59.345   59.416   59.328   59.033   58.781   58.729   58.639   58.693   59.234   60.211   60.500   60.057   59.009   58.553   58.776   59.023   59.080   59.321   59.206   59.190   59.189   58.977   58.978   59.088   59.133   58.976   58.732   58.527   58.297   58.056   57.894   57.684   57.652   57.703   57.700   57.622   57.717   57.676   57.362   57.078   57.654   58.100   58.046   57.196   56.323   56.569   57.072   57.099   57.559   57.457   57.231   57.089   57.086   56.741   56.667   56.756   56.671   56.544   56.580   56.585   56.356   56.528   56.991   57.293   57.386   57.702   57.618   57.608   57.764   58.100   57.946   57.976   58.155   58.444   58.845   58.780   58.358   57.866   57.913   57.539   57.266   57.187   57.322   57.167   56.168   55.298   55.048   54.835   53.507   53.222   53.735   53.614   53.516   53.521   53.533   53.429   52.974   51.934   51.417   51.662   51.716   51.723   51.206   50.431   50.020   49.965   49.625   49.377   49.575   50.252   50.399   50.310   50.101   49.780   49.272   49.069   49.095
  106.977  107.337  107.357  107.244  107.237  107.548  108.285  107.883  108.290  109.655  109.301  108.965  108.508  108.010  107.832  108.540  109.238  109.711  109.749  109.668  110.112  110.186  109.938  110.803  110.978  110.621  110.268  110.648  110.326  109.797  109.518  109.668  109.830  110.200  110.508  110.453  109.525  109.173  109.330  109.755  110.209  110.585  110.988  111.409  111.813  112.161  112.718  112.745  112.321  112.028  111.414  111.336  111.426  111.279  110.551  110.141  110.007  110.348  111.698  111.363  111.168  111.188  110.954  111.540  112.060  112.206  111.789  111.190  109.812  109.069  109.352  109.798  108.928  108.267  108.379  109.643  108.442  108.253  108.899  109.970  110.629  109.888  109.027  108.589  109.044  109.676  109.890  109.801  109.612  109.291  109.504  109.997  110.389  109.984  110.069  109.739  109.105  108.979  109.310  109.534  109.983  110.996  110.336  109.941  109.952  110.367  110.844  110.898  111.377  111.886  111.273  111.090  111.130  111.866  113.610  114.391  114.124  113.952  114.281  114.952  115.582  115.260  114.580  114.703  115.882  116.257  116.560  117.153  116.426  116.693  116.625  116.154  116.272  116.274  116.809  117.337  116.910  115.738  115.547  115.787  115.924  115.354  115.264  115.500  115.774  115.508  116.388  116.692  116.058  114.414  114.061  113.965  113.666  113.146  113.521  113.411  111.700  109.630  110.285  109.828  109.443  109.275  109.437  109.416  109.110  108.883  108.861  108.755  107.569  106.928  106.456  105.115  106.284  106.257  105.597  104.891  104.832  103.843  103.511  103.826  103.387  103.863  104.031  103.994  104.086  103.472  103.490  103.352  102.758  102.874  102.908  102.859  102.676  102.239  101.242  100.600  100.358  100.446  101.517  102.227  102.460  102.203  101.591  101.350  100.929  100.519  100.681  100.707  100.172   99.062   97.469   97.679   98.163   98.175   97.745   98.248   98.427   98.134   97.538   96.987   97.461   97.588   97.484   97.335   96.737   96.127   96.643   97.920   97.469   96.566   95.763   95.515   96.451   97.023   96.047   94.787   93.942   92.721   93.528   93.687   92.884   92.349   92.162   92.175   91.938   90.999   91.988   91.374   90.195   89.213   89.625   88.585   87.779   87.431   87.136   86.963   86.933   86.789   86.382   87.230   87.440   87.608   87.726   86.697   85.430   84.518   83.803   82.812   82.712   83.053   83.493   83.635   82.473   81.387   80.770   80.537   79.701   77.702   76.897   77.327   78.551   78.583   78.281   78.200   78.615   78.636   78.410   77.877   77.183   76.664   76.431   76.081   75.796   75.823   75.447   74.964   74.631   74.515   74.330   74.033   73.602   72.495   68.643   71.764   72.368   72.153   72.127   71.864   71.120   70.373   69.860   69.602   69.712   69.474   69.054   68.927   68.104   67.785   67.665   67.417   67.299   67.265   67.053   66.694   66.609   66.217   66.088   65.848   64.796   64.568   64.441   64.165   63.669   63.504   63.363   63.315   63.345   63.352   62.826   62.571   62.531   62.546   62.350   62.424   62.518   62.377   61.436   60.444   59.855   59.624   59.449   59.473   59.263   59.071   59.148   59.231   59.132   59.022   58.890   58.441   58.355   58.452   58.518   58.228   57.930   57.678   57.438   57.202   57.222   57.683   58.303   58.897   59.121   58.795   58.884   59.155   59.125   59.402   59.879   59.920   59.197   58.446   58.303   58.521   58.925   59.355   60.574   60.936   60.371   59.079   58.711   59.156   59.434   59.225   59.198   59.068   59.063   59.115   59.004   59.024   59.118   59.148   59.017   58.710   58.547   58.377   58.151   57.927   57.863   57.877   57.888   57.810   57.651   57.769   57.762   57.384   57.224   57.956   58.546   58.312   56.257   57.048   57.389   57.181   57.029   57.489   57.652   57.650   57.602   57.807   57.649   57.390   57.108   56.898   56.609   57.187   57.679   57.100   56.941   57.221   57.452   57.506   57.827   57.692   57.650   57.792   58.070   57.945   58.003   58.223   58.553   58.732   58.627   58.262   57.809   57.857   57.440   57.201   57.144   57.087   56.379   55.608   55.133   55.035   54.385   53.555   53.267   53.477   53.646   53.459   53.386   53.374   53.283   52.870   52.048   51.516   51.591   51.935   52.235   51.952   51.296   51.051   50.522   49.778   49.409   49.956   50.093   50.004   49.906   49.911   49.904   49.581   49.424   49.448
  106.866  107.367  107.464  107.550  107.798  108.389  108.551  108.266  108.673  109.954  109.426  109.086  108.822  108.686  108.567  108.669  109.235  109.723  109.560  109.625  110.301  110.685  110.582  111.048  111.475  111.295  110.847  111.020  110.556  110.480  110.585  110.574  110.653  110.833  110.802  110.410  109.648  109.842  110.063  110.194  110.359  110.240  110.773  111.579  112.270  112.451  112.866  112.867  112.521  112.598  112.619  112.460  112.025  111.320  111.179  110.468  110.158  110.839  111.877  111.938  111.772  111.486  111.053  111.870  112.513  112.767  112.556  111.739  110.082  109.076  109.281  109.735  110.181  109.411  108.151  108.709  108.922  110.150  111.341  111.433  111.718  111.496  111.016  110.433  110.099  110.624  110.937  110.824  110.223  110.101  110.609  110.810  110.064  110.074  110.488  110.383  109.742  109.535  110.074  110.093  110.156  111.091  110.777  110.628  110.708  111.003  111.024  111.069  111.639  112.399  112.333  112.310  112.302  112.985  115.000  115.547  115.242  114.820  114.751  115.530  116.006  116.389  116.827  117.277  117.968  118.229  118.248  118.155  117.469  117.194  116.791  116.237  116.230  116.582  117.952  119.118  117.662  116.402  116.360  116.550  116.203  116.754  116.819  116.792  116.683  116.044  116.615  116.860  116.584  115.853  115.142  114.908  114.695  114.393  114.811  114.883  113.337  111.104  111.326  111.304  110.881  110.378  110.178  110.170  110.013  110.096  110.412  109.808  108.819  108.301  107.936  106.645  106.198  105.770  105.334  104.850  104.999  104.920  104.750  104.537  104.721  104.959  105.053  105.160  105.589  104.886  104.383  103.910  103.425  103.832  103.901  103.675  103.115  102.055  101.785  101.652  101.268  100.230  101.282  102.260  103.008  103.319  102.729  102.134  101.491  100.828  100.267   99.977   99.665   99.008   97.731   97.945   98.386   98.566   98.377   98.794   98.873   98.433   97.643   97.037   97.502   97.624   97.646   97.889   96.995   96.342   96.760   98.187   98.648   98.822   98.002   96.764   96.620   97.445   97.366   96.621   95.438   94.134   94.060   93.693   92.787   92.501   92.220   92.268   92.274   91.576   92.505   92.375   91.331   89.798   89.650   88.825   88.200   87.829   86.950   87.056   87.208   87.105   86.519   87.630   87.910   88.053   88.392   88.091   86.346   84.652   83.443   82.829   82.918   83.237   83.618   83.915   83.274   82.393   81.579   80.902   80.151   78.282   77.434   77.900   79.417   79.500   78.965   78.600   79.011   79.281   78.799   78.086   77.364   76.554   76.461   76.058   75.457   75.081   74.994   74.866   74.726   74.571   74.344   74.112   73.682   72.541   68.876   71.618   72.324   72.195   72.079   71.650   70.882   70.289   70.111   70.029   69.975   69.649   69.190   69.037   68.035   67.716   67.641   67.296   67.230   67.139   66.943   66.655   66.367   66.043   65.860   65.618   64.977   64.617   64.360   64.038   63.563   63.357   63.303   63.374   63.459   63.217   62.832   62.628   62.546   62.445   62.332   62.331   62.305   62.168   61.975   61.094   60.372   59.953   59.529   59.564   59.357   59.150   59.302   59.304   59.136   58.902   58.685   58.650   58.553   58.630   58.715   58.362   58.137   57.872   57.577   57.325   57.226   57.645   58.480   59.440   59.470   58.889   58.803   59.085   59.184   59.525   59.962   60.042   59.513   59.075   58.873   58.973   59.391   60.070   60.913   61.133   60.820   60.279   59.828   59.857   59.926   59.786   59.469   59.153   59.016   59.029   59.002   59.061   59.063   59.046   59.081   58.775   58.636   58.493   58.255   57.956   58.041   58.099   58.060   57.965   57.830   57.994   58.045   57.666   57.551   58.189   58.719   58.415   55.825   57.504   58.184   57.765   57.566   57.836   58.095   58.246   58.237   58.361   58.378   58.130   57.645   57.241   57.005   57.157   57.355   57.212   56.970   57.028   57.162   57.289   57.693   57.660   57.669   57.817   58.012   57.935   57.998   58.282   58.806   58.737   58.641   58.317   57.801   57.808   57.296   57.056   57.028   56.721   55.514   54.998   54.954   55.025   54.127   53.664   53.393   53.309   53.700   53.481   53.341   53.276   53.110   52.833   52.268   51.793   51.691   52.087   52.392   52.196   51.623   51.364   51.064   50.404   49.898   50.236   50.132   50.302   50.502   50.496   49.991   49.731   49.618   49.617