112.28 112.73 113.11 113.20 113.25 114.97 115.54 114.62 113.20 113.31 113.32 113.28 113.32 113.52 114.30 115.38 116.08 116.10 115.65 116.13 116.01 115.25 114.08 114.25 114.71 115.06 115.32 117.08 117.59 117.89 118.06 117.53 117.84 117.91 117.77 117.53 117.60 117.77 118.12 118.61 118.26 118.22 118.25 118.25 118.25 117.98 117.56 117.50 118.11 115.77 116.40 117.24 116.98 116.41 115.46 115.17 115.37 115.34 117.47 117.91 117.39 116.82 115.27 115.90 117.19 118.40 119.19 118.74 118.09 117.81 118.49 119.23 119.56 118.90 117.26 118.05 117.74 117.64 118.22 119.41 118.79 118.45 118.67 119.43 120.34 121.78 123.14 124.04 124.45 124.62 125.42 126.66 127.02 126.33 127.87 130.32 131.69 131.03 131.19 133.00 136.15 136.91 134.59 132.53 131.49 131.39 130.93 131.30 132.48 134.15 132.92 132.78 132.94 132.99 132.55 131.77 130.57 129.28 128.47 130.63 129.44 127.95 128.09 126.12 125.72 126.07 126.50 125.93 125.55 125.04 124.33 123.57 123.47 123.30 122.87 122.20 121.95 121.70 121.32 120.90 120.71 119.80 119.51 119.56 119.57 120.29 119.47 118.57 118.25 118.27 118.17 118.06 117.74 116.84 116.78 117.03 117.12 116.52 114.52 113.48 114.00 115.52 114.85 114.05 113.23 112.18 110.59 110.58 110.69 110.87 111.11 111.89 113.03 112.94 111.58 110.38 110.42 111.30 112.00 111.27 110.79 110.17 109.80 109.77 109.25 107.94 106.76 106.33 107.65 108.15 108.31 108.56 109.17 107.76 107.72 108.64 109.91 109.56 108.92 108.54 108.43 108.39 107.49 106.06 105.34 106.20 105.39 105.35 105.12 104.29 103.27 103.39 104.26 105.45 106.19 105.33 104.69 104.93 106.29 105.58 104.24 102.80 101.76 101.84 102.48 103.16 103.67 103.91 102.69 102.93 102.94 101.90 100.33  99.38  98.32  97.43  97.86  97.60  97.40  97.15  96.56  95.62  94.93  93.62  91.80  92.26  92.64  92.19  91.80  93.57  92.94  92.11  91.27  90.51  89.03  87.96  87.05  86.32  86.33  85.75  85.59  85.62  85.20  84.21  83.47  83.28  83.81  83.55  83.73  83.69  83.16  82.01  80.68  80.00  79.59  78.94  79.45  79.55  79.47  79.39  79.27  79.14  78.97  79.02  79.96  78.90  76.79  74.81  73.96  73.91  73.16  72.51  72.30  71.90  72.72  72.92  72.59  72.35  72.29  71.98  71.52  71.08  71.23  70.12  69.08  68.55  68.26  67.84  67.78  67.92  67.87  67.70  67.64  67.48  67.13  66.91  66.94  66.60  65.70  64.33  63.74  63.42  63.27  63.19  63.04  62.95  62.97  63.05  62.68  62.94  62.98  62.68  62.20  61.94  61.83  61.80  61.82  62.17  62.23  62.00  61.58  61.33  61.43  61.42  61.34  61.34  61.46  61.64  61.69  61.50  61.42  61.39  61.41  61.48  61.46  61.22  60.73  60.25  60.18  60.51  60.95  61.23  61.17  60.91  60.94  61.07  61.23  61.33  61.16  61.38  61.92  62.58  62.27  62.56  62.87  62.84  62.54  63.02  63.26  63.16  62.97  63.45  63.90  64.18  64.15  63.17  62.20  61.65  61.63  61.82  61.78  61.55  61.19  60.73  60.60  60.48  60.48  60.65  60.72  60.79  60.70  60.48  60.41  61.17  61.52  61.43  61.03  60.87  60.79  60.72  60.15  56.20  58.29  60.20  60.75  61.35  60.97  60.38  60.03  60.28  60.08  59.95  59.69  59.29  59.31  59.25  59.33  59.31  58.73  58.55  57.89  57.31  57.35  57.79  58.03  58.27  58.52  58.66  58.64  58.72  58.62  57.95  57.77  57.68  57.68  57.77  58.05  57.79  57.50  57.33  57.28  56.65  56.29  56.14  55.99  55.73  55.76  56.08  56.54  56.43  56.65  55.99  54.80  54.52  55.11  54.80  54.27  54.29  54.43  54.34  54.16  54.01  53.98
112.79 112.81 113.08 113.36 113.69 115.25 115.76 115.24 114.16 113.36 113.30 113.54 113.94 114.35 115.05 115.31 115.49 115.81 115.58 115.78 116.16 116.44 115.97 116.37 116.49 116.61 117.16 118.16 118.42 118.34 118.11 118.08 118.13 118.33 118.35 117.45 118.50 118.69 118.73 119.23 119.09 119.15 118.92 118.45 118.42 118.24 118.15 118.29 118.73 116.74 117.19 117.82 117.35 116.72 115.85 115.74 116.29 116.41 118.54 118.87 118.19 117.73 115.68 115.78 117.02 118.65 119.38 118.62 118.13 118.22 118.49 119.64 120.72 121.28 121.04 121.33 120.92 121.16 122.58 124.60 123.84 123.08 122.84 123.14 124.03 125.50 126.93 127.83 128.62 128.91 130.50 132.95 132.38 131.20 133.56 137.42 139.29 138.23 138.01 139.46 142.49 143.34 140.96 139.34 139.22 139.50 137.39 137.49 139.36 141.53 140.09 139.50 139.50 139.94 140.65 139.66 137.50 135.05 133.97 134.56 133.91 133.42 134.06 130.56 129.81 130.18 130.53 129.37 128.87 127.50 125.64 124.63 124.38 123.89 123.42 123.18 122.27 121.84 121.42 120.95 120.72 120.28 119.79 119.36 119.11 120.35 119.80 118.74 118.09 118.25 118.22 118.09 117.72 116.87 116.98 116.95 116.64 116.15 115.25 114.53 114.61 115.46 115.29 114.61 114.15 113.67 112.15 111.75 111.44 111.43 112.03 113.31 113.77 113.19 111.91 111.40 111.42 112.22 113.00 112.27 111.14 110.55 110.35 110.25 110.15 109.10 107.78 107.05 109.00 109.22 109.33 109.70 110.51 108.92 108.46 109.11 110.37 109.27 108.61 108.26 108.23 108.76 108.05 107.08 106.69 107.49 106.61 106.61 106.61 106.07 104.36 104.20 105.30 106.93 107.70 107.61 107.16 107.06 107.83 107.16 105.58 104.29 103.86 103.94 104.27 104.25 104.17 104.92 104.57 104.00 103.59 103.64 101.57 100.49  99.63  98.91  98.97  98.32  98.41  98.70  98.00  95.86  95.20  94.58  93.23  93.13  93.07  92.44  92.00  94.00  93.79  92.82  91.64  90.78  89.64  88.68  87.84  87.21  87.10  86.73  86.50  86.39  86.32  84.96  83.82  83.34  83.72  83.88  83.86  83.51  82.87  82.20  81.56  81.07  80.58  79.87  80.03  79.78  79.47  79.38  79.14  78.89  78.69  78.88  80.36  79.16  77.44  75.73  74.23  73.85  71.67  69.89  70.24  74.15  74.28  73.77  73.47  72.94  72.78  72.24  71.52  70.95  71.01  69.96  68.81  68.21  68.66  68.31  68.09  68.05  67.97  67.75  67.65  67.52  67.22  66.91  66.85  66.52  65.73  64.60  64.01  63.81  63.82  63.73  63.22  62.97  62.94  63.02  62.77  63.00  63.16  63.06  62.50  62.15  61.92  61.80  61.80  61.90  61.99  61.98  61.78  61.37  61.32  61.35  61.39  61.39  61.47  61.55  61.55  61.39  61.17  61.13  61.39  61.84  61.78  61.59  61.07  60.54  60.55  60.77  61.11  61.38  61.42  61.04  61.16  61.47  61.80  62.01  61.81  61.82  62.13  62.77  62.54  62.81  63.15  63.25  62.75  62.96  63.23  63.39  63.49  63.66  63.86  63.96  63.81  63.26  62.28  61.62  61.64  61.91  61.75  61.59  61.42  60.96  60.86  60.70  60.60  60.70  60.77  60.91  60.85  60.57  60.42  61.13  61.49  61.38  60.95  60.83  60.82  60.80  60.37  56.35  58.26  60.25  60.75  61.68  61.07  60.38  59.96  59.97  59.96  59.88  59.66  59.38  59.17  59.09  59.13  59.10  58.63  58.71  58.29  57.73  57.54  57.73  58.10  58.40  58.51  58.56  58.68  58.80  58.71  58.08  58.00  57.87  57.73  57.66  58.02  57.99  57.79  57.53  57.40  56.78  56.40  56.23  56.00  55.70  55.88  56.28  56.66  56.61  56.62  56.03  55.04  54.71  55.12  54.83  54.35  54.49  54.65  54.56  54.32  54.03  53.92
113.05 113.12 113.58 114.16 114.61 114.92 115.21 115.51 115.49 113.53 113.30 113.77 114.57 115.35 115.93 115.24 114.86 115.60 115.73 115.86 116.56 117.53 117.59 118.03 117.95 117.88 118.44 118.62 118.60 118.33 117.92 118.22 118.11 118.12 118.16 117.79 118.77 118.88 118.81 119.39 119.28 119.53 119.63 119.32 118.62 118.11 117.88 117.92 118.09 117.33 117.44 117.66 117.42 116.75 116.40 117.14 118.67 118.83 119.30 118.98 118.37 118.33 116.21 115.66 116.60 118.68 119.43 118.49 118.21 118.78 118.76 120.28 121.95 123.37 124.28 124.39 123.79 124.14 126.24 128.63 128.83 128.34 127.78 127.97 129.21 130.82 132.19 132.79 133.39 133.61 135.32 138.27 137.27 136.66 138.64 142.12 144.50 144.93 145.08 145.44 146.30 147.19 146.29 146.33 147.87 149.15 145.63 145.63 148.36 150.30 148.36 147.01 146.54 147.19 149.35 148.10 144.80 140.99 139.42 138.38 137.47 137.02 137.40 132.94 131.70 131.73 131.62 130.12 129.34 127.80 125.85 125.05 125.14 124.62 123.84 123.24 122.05 121.61 121.37 121.10 121.15 120.95 120.57 120.00 119.25 119.25 118.75 118.32 118.41 118.52 118.88 118.88 118.22 116.95 117.34 116.65 115.40 115.26 116.22 116.10 115.53 115.11 115.64 115.09 115.03 115.29 113.80 113.03 112.42 112.31 113.03 114.61 114.64 113.66 112.30 112.26 112.37 113.08 113.74 112.76 111.53 111.33 111.50 111.16 110.90 110.50 109.93 109.42 110.27 109.75 109.86 110.62 111.08 109.69 109.19 109.54 110.40 109.97 109.76 109.26 108.62 109.32 108.67 108.37 108.71 109.55 108.37 107.70 107.60 107.81 105.64 105.36 106.62 108.62 109.30 109.87 109.52 108.96 108.94 108.23 106.56 105.40 105.40 105.40 105.31 104.81 104.38 105.13 105.04 104.58 104.33 104.52 102.69 101.84 101.06 100.10 100.06  99.13  98.67  98.54  98.07  96.59  95.64  94.82  93.79  92.44  92.10  92.17  92.54  93.46  93.98  93.60  92.67  91.89  91.46  90.39  89.27  88.61  88.51  88.35  87.75  86.90  86.91  85.34  84.15  83.59  83.62  84.23  83.99  83.30  82.52  82.24  82.11  81.80  81.28  80.69  80.59  80.02  79.43  79.34  79.15  78.72  78.34  78.39  79.78  79.25  78.27  77.05  75.59  74.18  72.52  70.93  69.81  73.63  74.11  73.73  73.36  73.00  72.98  72.49  71.72  71.16  70.81  69.80  68.90  68.60  68.75  68.48  68.20  68.00  67.92  67.70  67.65  67.63  67.44  67.01  66.69  66.26  65.61  64.90  64.35  64.25  64.36  64.15  63.38  63.03  62.97  63.01  62.87  63.07  63.30  63.33  62.81  62.45  62.13  61.89  61.80  61.87  61.99  62.02  61.86  61.43  61.32  61.37  61.50  61.54  61.55  61.53  61.47  61.40  61.30  61.41  61.73  62.12  61.69  61.26  60.88  60.65  60.71  61.08  61.34  61.48  61.55  61.46  61.76  62.12  62.41  62.79  62.66  62.45  62.41  62.97  62.84  63.06  63.42  63.66  62.96  62.91  63.16  63.50  63.77  63.75  63.79  63.79  63.54  63.23  62.40  61.75  61.69  62.00  61.78  61.55  61.38  61.03  60.99  60.94  60.91  60.93  60.87  60.88  60.82  60.65  60.62  61.08  61.40  61.45  61.23  61.22  61.12  60.94  60.56  56.50  58.36  60.54  60.83  61.42  60.83  60.37  60.13  59.76  59.87  59.63  59.37  59.37  58.99  58.85  58.84  58.84  58.58  58.92  58.71  58.16  57.83  57.82  58.19  58.52  58.56  58.58  58.75  58.87  58.76  58.09  57.93  57.65  57.41  57.46  57.75  57.92  57.92  57.70  57.12  56.68  56.44  56.31  56.17  55.79  56.02  56.60  57.15  57.18  56.64  55.85  55.18  55.26  55.30  54.98  54.60  54.68  54.85  54.81  54.44  53.75  53.47
113.34 113.44 113.85 114.42 114.93 114.94 115.31 115.87 116.20 114.89 114.13 114.07 114.50 114.87 115.15 115.22 115.61 116.61 117.36 117.89 118.26 118.46 118.60 118.74 118.75 118.78 118.97 118.38 118.12 117.89 117.55 118.10 117.93 117.66 117.61 118.20 118.92 118.92 118.83 119.56 119.53 119.92 120.25 120.17 119.03 118.30 118.06 118.17 118.05 117.73 117.59 117.55 117.48 117.00 117.30 118.38 119.81 119.85 119.84 119.60 119.31 119.39 117.98 117.07 117.21 118.68 119.01 118.60 118.87 119.93 119.99 121.75 123.52 125.04 126.47 127.05 126.29 126.49 129.24 131.71 133.64 134.02 133.12 133.31 134.92 136.64 137.86 138.00 138.29 138.39 140.06 143.41 142.06 142.12 143.93 146.79 149.21 150.62 151.18 151.11 150.65 150.99 151.03 151.83 153.47 154.46 151.27 151.03 153.52 155.58 152.95 152.28 152.43 152.05 155.83 154.84 151.27 146.82 144.01 141.19 137.92 134.90 133.46 130.52 129.53 129.25 128.64 127.64 126.93 126.07 125.19 125.02 125.77 125.42 124.25 123.01 121.70 121.31 121.27 121.23 121.53 121.57 121.33 120.69 119.47 118.73 118.27 118.15 118.44 118.46 118.84 118.87 118.20 116.74 116.75 116.19 115.41 115.76 116.34 116.45 116.25 115.93 116.62 116.11 115.82 115.97 114.97 114.57 114.76 115.07 114.52 115.70 115.72 114.66 112.90 112.90 113.25 113.87 114.23 112.84 111.91 112.33 113.02 112.30 111.62 111.91 112.32 112.24 111.65 110.34 110.40 111.52 111.76 110.67 110.31 110.39 110.28 110.27 110.19 109.62 108.78 109.32 108.87 108.81 109.20 109.66 108.56 107.87 107.48 107.04 105.70 105.46 106.06 107.04 107.26 107.44 107.25 106.95 106.90 106.57 105.89 105.40 105.40 105.40 104.89 104.41 104.25 104.46 104.12 104.58 105.23 104.75 103.67 103.29 102.59 101.18 101.14  99.97  98.86  98.25  98.13  97.36  96.23  95.16  94.51  92.28  91.84  92.56  93.78  94.03  94.80  94.66  93.71  92.75  92.72  91.71  90.53  90.02  89.92  89.30  88.14  86.86  86.82  85.89  85.21  84.73  84.08  84.12  83.68  82.96  82.13  81.59  81.44  81.31  81.16  81.19  81.10  80.26  79.33  79.25  79.30  78.65  77.93  77.69  78.63  79.16  79.15  78.51  77.30  74.69  73.76  72.73  69.70  72.86  73.70  73.60  73.24  73.04  73.10  72.71  71.99  71.30  70.56  69.74  69.21  69.14  69.07  68.56  68.12  67.95  67.87  67.79  67.71  67.64  67.59  67.06  66.68  66.33  65.91  65.47  65.14  64.79  64.33  63.71  63.30  63.19  63.19  63.06  62.97  63.17  63.39  63.43  63.12  62.85  62.49  62.07  61.81  61.99  62.12  62.10  61.88  61.49  61.34  61.41  61.61  61.69  61.65  61.53  61.42  61.40  61.41  61.60  61.94  62.31  61.83  61.42  61.09  60.85  60.85  61.19  61.39  61.48  61.63  61.66  61.84  62.12  62.50  62.89  62.99  62.92  62.83  62.99  62.97  63.23  63.61  63.84  63.02  62.84  63.00  63.26  63.40  63.48  63.62  63.68  63.39  63.07  62.55  62.05  61.79  62.10  61.83  61.47  61.21  61.02  61.06  61.17  61.26  61.20  60.98  60.86  60.79  60.74  60.84  61.05  61.25  61.41  61.37  61.41  61.27  61.10  61.04  56.72  58.58  61.07  61.06  61.06  60.59  60.05  59.63  59.62  59.45  59.33  59.36  59.53  59.15  58.91  58.78  58.78  59.15  59.59  59.27  58.55  58.43  58.29  58.38  58.56  58.72  58.79  58.90  58.94  58.76  58.02  57.64  57.16  56.85  57.24  57.40  57.74  57.99  57.88  56.81  56.55  56.48  56.42  56.36  55.97  56.24  56.91  57.48  57.46  56.66  55.81  55.34  55.54  55.44  55.16  54.83  54.79  54.85  54.79  54.46  53.84  53.51
113.67 113.76 113.95 114.29 114.83 115.08 115.68 116.30 116.65 116.45 115.17 114.44 114.53 114.63 114.63 115.23 116.22 117.17 118.31 118.98 119.13 118.95 119.20 119.20 119.18 119.18 119.23 118.65 118.34 118.07 117.65 117.83 117.69 117.54 117.57 118.00 118.88 119.18 119.34 120.50 120.62 120.53 120.52 120.78 119.93 119.27 119.19 119.49 118.96 118.02 117.56 117.52 117.50 117.40 118.38 119.62 120.39 120.35 120.30 120.30 120.40 120.52 119.86 118.81 118.32 119.21 119.25 119.36 120.31 122.11 122.62 124.31 126.22 128.15 129.87 130.40 130.64 131.77 134.41 136.67 138.31 138.62 137.93 138.63 139.92 141.03 142.03 143.41 144.05 143.80 144.51 147.21 146.19 147.70 149.77 151.49 152.95 154.59 155.73 156.16 155.72 154.80 155.28 156.34 157.19 157.47 155.58 155.44 157.44 159.95 156.85 157.09 158.20 156.56 161.40 160.24 155.80 150.09 145.44 141.23 136.79 132.66 130.18 128.53 127.93 127.69 127.21 126.53 126.03 125.76 125.67 125.30 125.38 124.98 124.07 122.74 121.65 121.47 121.50 121.21 121.34 121.85 122.05 121.52 119.88 119.52 119.13 118.58 118.00 117.94 118.02 118.01 117.72 116.30 115.62 115.51 115.98 116.79 116.30 116.43 116.88 116.92 117.61 117.15 116.75 116.79 116.20 116.02 116.64 117.30 116.14 116.68 116.54 115.64 114.22 114.52 114.75 114.84 114.60 113.60 112.82 113.16 113.99 113.93 113.55 113.96 114.44 114.39 113.78 112.56 111.97 112.22 112.79 112.50 112.68 112.39 109.91 109.89 109.49 108.99 108.71 108.80 108.67 108.64 108.70 108.71 107.97 107.64 107.09 105.50 105.41 105.48 105.84 106.23 106.50 106.66 106.84 107.17 107.66 107.75 107.91 108.22 108.69 108.65 108.14 107.91 108.11 107.92 105.58 104.61 104.78 104.33 104.76 104.44 103.47 102.31 102.31 101.42 100.84 100.72  99.89  98.77  97.39  96.14  95.51  93.49  93.37  94.53  96.18  96.27  96.58  96.09  94.78  93.42  93.54  92.73  91.67  91.43  91.33  90.06  88.28  86.70  86.61  86.42  86.29  85.90  84.64  84.12  83.50  82.77  81.97  81.19  81.14  81.20  81.17  81.57  81.23  80.27  79.27  79.05  79.11  78.42  77.67  77.47  78.26  78.90  79.08  78.70  77.65  75.26  74.07  73.17  71.06  71.28  72.15  72.94  73.11  73.07  72.98  72.83  72.45  71.31  70.22  69.79  69.79  69.83  69.61  68.60  67.89  67.90  67.82  67.91  67.82  67.62  67.69  67.11  66.70  66.43  66.16  65.90  65.69  65.17  64.34  63.60  63.48  63.50  63.47  63.32  63.24  63.40  63.56  63.53  63.31  62.90  62.48  62.13  61.83  61.95  62.06  62.05  61.85  61.53  61.37  61.37  61.53  61.82  61.84  61.76  61.60  61.41  61.45  61.57  61.80  62.19  62.34  62.33  61.92  61.14  60.98  61.15  61.28  61.40  61.68  61.76  61.71  61.86  62.44  62.82  63.20  63.36  63.25  63.02  63.06  63.34  63.70  63.92  63.05  62.82  62.92  63.13  63.21  63.35  63.55  63.70  63.47  63.24  62.94  62.53  61.99  62.34  61.97  61.45  61.15  61.10  61.19  61.27  61.28  61.20  61.10  61.05  61.01  60.95  61.14  61.04  60.99  61.11  61.24  61.23  61.16  61.25  61.81  57.04  58.89  61.80  61.42  60.68  60.33  59.65  58.84  59.45  58.97  58.99  59.40  59.69  59.37  59.08  58.81  58.70  59.50  59.98  59.62  58.83  58.91  58.74  58.60  58.59  58.83  58.96  58.96  58.84  58.56  57.89  57.43  56.97  56.67  56.92  57.00  57.18  57.30  57.26  57.07  56.92  56.85  56.85  56.74  56.50  56.76  57.25  57.43  57.07  56.56  56.02  55.58  55.53  55.53  55.37  55.11  54.86  54.80  54.69  54.44  54.06  53.69
114.22 114.07 114.06 114.41 115.34 115.51 115.89 116.36 116.75 116.80 116.04 115.88 116.58 117.02 115.89 115.79 116.42 116.49 117.61 118.11 118.36 118.75 119.25 119.34 119.26 119.14 119.27 119.18 118.94 118.53 117.95 117.55 117.42 117.47 117.63 117.83 118.92 119.57 119.97 121.32 121.55 121.22 120.95 121.25 120.70 120.08 120.00 120.40 119.44 118.53 118.00 117.89 118.19 118.79 119.72 120.41 120.50 120.42 120.95 121.58 122.00 122.09 122.22 122.26 122.29 122.29 121.96 122.33 123.84 126.49 127.79 128.65 130.40 132.97 134.52 134.40 136.16 138.97 140.79 142.51 143.05 142.84 142.58 143.89 144.83 145.31 146.03 148.47 149.31 148.71 148.72 151.28 150.97 152.78 154.65 155.83 156.53 158.15 159.39 159.79 159.01 158.58 159.48 160.84 161.85 162.00 160.15 159.37 160.78 164.04 164.00 163.64 162.57 160.12 161.93 158.83 152.57 144.94 138.38 134.83 132.29 130.04 127.77 127.09 126.88 126.87 126.97 126.33 125.95 126.10 126.64 125.73 124.81 124.24 123.79 122.50 121.68 121.69 121.80 121.28 121.38 122.20 122.67 122.21 120.52 120.36 120.14 119.63 119.00 118.78 118.38 118.05 117.99 116.92 116.64 116.99 117.66 117.83 117.56 117.64 117.76 117.29 117.64 118.11 118.51 118.52 117.77 117.23 117.48 118.16 117.78 117.50 117.02 116.52 116.27 116.98 116.80 115.97 114.85 114.64 113.94 113.98 114.75 115.60 115.64 116.06 116.45 116.28 115.51 114.43 113.63 113.44 114.18 113.91 114.02 113.72 111.02 112.16 112.42 112.47 113.13 113.27 113.12 114.39 117.31 119.33 119.33 118.68 117.50 115.84 115.64 115.55 115.79 116.39 115.79 114.78 114.34 114.82 116.10 115.52 115.28 115.67 116.67 115.88 115.22 114.98 115.09 114.16 108.61 104.80 103.75 103.67 105.77 105.58 104.21 103.40 103.36 102.85 102.91 103.39 102.11 100.60  99.02  97.66  96.79  95.05  95.33  96.75  98.19  97.99  97.47  96.41  95.04  94.24  93.65  92.63  91.67  91.53  91.85  91.30  90.27  89.07  87.68  87.31  86.92  86.17  85.25  84.54  83.83  83.11  82.42  81.31  81.53  81.77  81.43  81.83  81.00  80.03  79.27  78.80  78.72  78.08  77.44  77.44  78.14  78.61  78.81  78.66  77.79  75.82  74.51  73.67  72.51  70.25  70.72  71.98  72.42  72.69  72.53  72.47  72.39  71.31  70.27  69.88  69.92  70.10  69.76  68.69  67.82  67.69  67.63  67.74  67.73  67.64  67.84  67.59  67.20  66.66  65.95  65.53  65.14  64.74  64.36  64.33  64.33  64.13  63.84  63.86  63.74  63.80  63.83  63.65  63.42  62.73  62.25  62.15  61.84  61.88  61.95  61.96  61.80  61.58  61.42  61.38  61.51  61.94  62.00  61.91  61.74  61.48  61.50  61.61  61.85  62.30  62.55  62.56  62.16  61.44  61.27  61.31  61.33  61.39  61.76  61.98  61.86  61.85  62.42  62.97  63.16  63.16  63.11  63.01  63.03  63.13  63.32  63.59  63.00  62.87  63.01  63.18  63.26  63.40  63.62  63.84  63.73  63.63  63.48  63.11  62.26  62.64  62.14  61.45  61.11  61.19  61.33  61.36  61.28  61.22  61.24  61.25  61.22  61.11  61.32  61.17  61.02  61.03  61.13  61.20  61.40  61.35  60.05  58.31  60.01  61.87  61.13  60.50  60.04  59.46  58.84  58.56  58.83  59.19  59.46  59.64  60.01  59.89  59.35  58.65  59.24  59.60  59.41  58.93  59.21  59.15  58.83  58.59  58.88  59.09  58.98  58.66  58.22  57.72  57.25  56.85  56.60  56.61  56.60  56.61  56.61  56.68  57.28  57.28  57.20  57.25  57.15  57.11  57.35  57.62  57.43  57.11  56.72  56.23  55.69  55.53  55.55  55.49  55.34  55.01  54.88  54.55  54.11  53.81  53.53
114.93 114.41 114.16 114.60 116.03 116.03 116.09 116.35 116.82 117.02 116.78 117.07 118.11 118.76 117.12 116.55 116.87 116.42 117.52 118.03 118.33 118.89 119.36 119.47 119.40 119.31 119.44 119.77 119.84 119.44 118.35 118.11 118.06 118.10 118.19 118.72 119.91 120.83 121.32 121.84 122.00 121.97 121.82 121.49 121.27 120.66 120.47 120.88 119.55 119.14 118.76 118.45 119.18 120.53 121.20 121.13 120.50 120.44 121.61 122.83 123.48 123.57 124.34 125.16 125.59 125.25 125.22 126.06 127.98 130.96 132.28 133.03 134.64 137.17 138.92 138.66 140.33 143.32 145.53 146.48 146.69 146.09 144.91 146.43 147.91 149.10 150.15 151.71 152.11 151.46 151.84 156.06 157.11 157.28 157.87 159.64 159.89 161.31 162.33 162.37 161.18 162.20 163.69 165.28 166.81 166.92 164.82 163.30 164.08 167.99 169.89 168.41 164.54 160.56 158.35 153.35 146.62 139.39 133.34 130.88 129.54 128.24 127.16 126.99 126.83 126.64 126.59 126.12 125.93 126.04 126.33 125.72 124.93 124.15 123.44 122.85 122.50 122.44 122.32 121.66 122.13 122.88 123.16 122.56 121.45 121.29 121.29 121.25 121.19 120.65 119.55 118.58 118.58 117.93 118.30 119.07 119.64 118.93 118.98 119.18 119.03 117.67 117.67 118.62 119.48 119.39 118.59 117.93 117.88 118.36 118.33 117.68 117.11 117.16 118.52 119.17 118.92 117.96 116.57 115.85 115.65 115.84 116.31 117.14 117.21 117.42 117.39 116.41 115.14 114.79 115.22 116.11 116.44 114.71 113.73 113.80 113.63 117.05 118.55 119.12 120.52 120.58 119.87 122.28 128.83 132.97 133.28 131.67 129.05 126.74 125.91 125.42 125.42 125.86 124.64 122.80 121.54 121.46 123.30 121.74 120.40 120.36 122.40 121.71 121.51 121.46 120.96 118.01 114.47 112.56 112.16 111.38 107.11 104.55 103.78 103.40 102.86 104.06 105.79 106.82 105.83 103.66 101.76 100.33  98.71  97.19  97.86  99.36  99.80  99.27  97.72  95.97  94.75  95.07  93.55  92.11  91.33  91.31  92.19  92.47  92.19  91.33  88.75  88.09  87.50  86.48  85.79  85.07  84.28  83.48  82.86  81.74  81.83  82.05  81.76  81.96  81.28  80.42  79.55  78.66  78.65  78.24  77.73  77.64  77.82  78.04  78.24  78.24  77.25  76.54  75.89  75.00  73.60  70.61  69.94  70.39  70.56  71.53  71.53  71.49  71.67  71.25  70.63  70.06  69.75  70.09  69.73  68.77  67.83  67.42  67.41  67.52  67.62  67.70  68.02  67.96  67.52  66.75  65.65  65.13  64.70  64.44  64.44  64.78  64.82  64.56  64.22  64.19  64.01  63.93  63.89  63.77  63.48  62.86  62.46  62.42  62.09  61.92  61.87  61.86  61.70  61.71  61.78  61.87  61.96  62.10  62.02  61.88  61.77  61.63  61.59  61.75  62.14  62.72  62.53  62.20  61.89  61.72  61.64  61.59  61.47  61.39  61.85  62.24  62.07  61.87  62.41  63.06  63.07  62.93  62.92  62.94  62.99  63.04  63.13  63.40  63.12  63.11  63.26  63.34  63.36  63.41  63.55  63.77  63.83  63.85  63.76  63.41  62.56  62.70  62.36  61.89  61.61  61.50  61.47  61.38  61.25  61.31  61.46  61.50  61.39  61.10  61.27  61.47  61.52  61.27  61.08  61.33  61.93  61.63  56.84  59.82  61.71  61.67  60.57  60.36  59.76  59.27  58.99  57.65  58.58  59.37  59.59  59.59  60.51  60.60  59.93  58.83  59.08  59.32  59.29  59.05  59.36  59.23  58.86  58.61  59.03  59.11  58.93  58.58  58.12  57.66  57.11  56.93  57.13  57.03  57.03  56.84  56.73  57.20  57.55  57.59  57.55  57.54  57.61  57.87  58.05  57.99  57.51  57.59  57.20  56.45  55.70  55.54  55.55  55.57  55.52  55.19  55.01  54.45  54.06  53.46  53.33
114.87 114.55 114.58 115.06 115.60 115.78 115.93 116.25 116.97 116.84 116.93 117.25 117.73 118.54 118.01 117.69 117.69 117.19 118.24 118.83 119.08 119.35 119.53 119.57 119.57 119.57 119.66 120.35 120.79 120.48 118.82 118.78 118.83 118.88 118.97 119.73 121.01 122.10 122.64 122.74 122.73 122.72 122.49 121.60 121.28 120.77 120.56 120.86 120.16 120.09 119.81 119.39 120.17 120.98 121.12 120.79 120.45 121.67 122.91 123.76 124.11 124.57 125.72 126.53 126.94 127.80 129.39 131.05 133.03 135.65 136.18 137.34 139.00 140.94 143.15 143.02 144.08 146.69 149.77 150.12 150.16 149.36 147.32 149.12 151.01 152.67 154.00 155.08 155.44 154.99 155.47 159.99 162.06 161.68 161.54 163.56 163.58 164.90 166.13 166.53 165.22 165.42 166.73 168.55 169.83 170.64 169.37 168.15 168.55 171.17 168.21 162.92 156.74 150.23 143.51 138.44 135.07 132.80 130.74 129.87 128.74 127.06 127.81 127.81 127.37 126.73 126.19 125.91 125.90 125.95 125.79 125.58 124.99 124.08 123.14 123.10 123.09 123.02 122.80 122.29 122.52 122.94 123.03 122.46 121.90 121.74 121.71 121.71 121.55 120.91 120.00 119.36 119.63 118.95 118.81 119.32 120.37 120.38 121.52 122.94 123.04 118.03 117.62 117.97 118.30 118.24 117.94 117.71 117.68 117.82 117.80 117.24 116.87 117.56 120.80 121.27 121.05 120.23 118.77 117.18 117.38 117.74 117.77 118.40 118.39 118.35 117.91 116.25 114.84 114.87 115.79 116.96 116.90 115.99 115.57 115.88 117.07 120.36 121.24 120.96 122.32 122.51 124.17 129.42 138.41 144.04 144.79 142.36 137.96 133.48 133.71 134.09 133.87 132.72 132.09 130.40 128.23 126.48 128.78 126.08 123.22 122.48 126.23 126.52 127.28 127.70 126.50 121.18 120.77 121.89 122.23 120.12 109.86 105.09 105.28 105.53 104.69 105.95 107.69 108.75 107.48 105.01 103.61 103.38 101.36  99.67  99.94 100.81 100.09 100.45  98.75  96.61  95.28  94.97  93.68  92.89  92.56  91.54  91.48  91.55  91.38  90.55  89.04  88.40  87.80  86.93  86.20  85.79  84.99  83.92  83.27  82.51  82.13  82.02  82.16  82.03  81.82  81.18  79.98  78.60  78.67  78.52  78.13  77.91  77.53  77.49  77.62  77.73  76.72  77.00  76.97  76.11  74.46  70.96  69.50  69.50  69.52  70.84  71.09  70.97  70.86  70.67  70.33  70.12  70.12  70.30  69.99  69.31  68.41  67.40  67.40  67.92  68.30  68.33  68.61  67.67  66.83  66.14  65.04  64.66  64.44  64.44  64.69  64.91  64.86  64.74  64.61  64.38  64.10  63.91  63.83  63.88  63.51  63.06  62.78  62.75  62.38  61.99  61.82  61.80  61.65  61.83  62.08  62.29  62.34  62.25  62.06  61.94  61.94  61.97  61.95  62.03  62.28  62.74  62.55  62.30  62.13  62.12  62.05  61.84  61.67  61.73  62.32  62.16  62.02  62.11  62.39  62.59  62.57  62.50  62.50  62.69  62.93  63.15  63.32  63.46  63.48  63.59  63.69  63.61  63.50  63.39  63.40  63.57  63.84  64.01  63.96  63.62  62.85  62.73  62.55  62.32  62.09  61.79  61.60  61.45  61.33  61.45  61.67  61.71  61.52  61.12  61.32  61.64  61.72  61.29  61.05  61.42  62.08  61.73  56.17  60.03  61.89  61.12  59.76  60.08  59.66  58.60  57.10  56.47  57.72  59.19  60.09  59.58  60.65  60.99  60.49  59.46  59.09  59.18  59.30  59.24  59.38  59.07  58.72  58.64  59.22  59.09  58.86  58.55  58.08  57.62  56.98  57.01  57.69  57.47  57.45  57.11  56.84  57.48  57.77  57.83  57.81  57.86  58.01  58.23  58.33  58.20  57.71  57.69  57.32  56.72  56.23  55.98  55.79  55.59  55.48  55.24  54.86  54.26  54.13  53.57  53.36
114.57 114.61 115.03 115.64 115.19 115.50 115.80 116.15 116.94 116.78 117.19 117.60 117.46 118.39 118.59 118.49 118.24 117.84 118.64 119.17 119.44 119.83 119.93 119.97 119.88 119.66 119.81 120.34 120.80 120.91 120.20 120.22 120.29 120.47 120.93 121.33 122.50 123.49 123.77 124.24 123.96 123.53 122.91 121.61 120.85 120.48 120.43 120.50 120.92 121.17 120.95 120.44 121.17 121.32 121.02 120.64 120.80 122.82 124.06 124.69 125.01 126.17 127.92 129.03 129.43 130.92 133.47 135.87 137.85 139.12 139.58 140.85 142.71 144.91 146.47 146.27 147.04 149.32 152.03 153.79 154.28 153.59 152.21 153.34 154.42 155.52 156.81 158.63 159.85 159.98 160.12 163.06 165.66 165.81 165.65 167.56 167.49 168.73 170.29 171.31 169.88 168.65 169.49 171.66 172.65 174.16 173.72 172.73 172.39 172.04 164.68 156.04 148.29 140.78 133.46 129.84 129.23 129.76 129.68 129.02 128.11 127.53 128.00 128.02 127.73 127.20 126.49 125.99 125.89 125.89 125.51 124.48 123.93 123.64 123.43 123.10 123.03 123.06 123.15 123.34 122.43 122.14 122.14 121.92 121.94 121.81 121.67 121.55 121.07 120.50 120.15 120.18 120.75 119.99 119.23 119.37 120.81 121.47 123.27 125.39 126.39 122.42 122.56 123.07 123.33 123.21 123.10 123.02 122.84 122.42 121.66 121.35 121.81 122.57 121.61 121.42 120.76 119.53 117.88 117.03 117.05 117.22 117.21 117.47 117.45 117.34 116.83 115.17 114.57 114.55 114.83 115.18 115.12 117.45 119.33 119.62 121.14 122.93 122.36 120.85 122.16 122.91 127.64 136.25 146.96 153.35 154.55 151.95 146.64 141.06 141.12 141.01 139.75 137.39 138.06 136.48 133.73 131.43 133.44 131.29 128.86 127.78 129.17 131.19 132.93 133.65 132.73 125.81 123.82 125.14 128.07 127.53 122.43 119.03 117.81 116.94 114.58 110.59 107.36 107.67 105.58 103.63 104.16 106.84 104.69 102.51 101.77 101.56  99.67 101.48 100.11  97.62  96.13  94.73  93.80  93.79  94.00  91.95  90.96  90.68  90.50  89.72  89.10  88.59  87.95  87.05  86.40  86.04  85.20  84.08  83.90  83.32  82.74  82.36  82.33  82.17  81.86  81.31  80.44  78.81  78.43  78.33  78.25  78.02  77.81  77.27  76.73  76.61  76.18  76.83  77.20  76.63  74.86  71.20  69.50  69.50  69.50  70.67  71.10  70.83  70.00  69.82  69.71  70.06  70.71  70.59  70.31  69.92  69.10  67.47  67.48  68.20  68.77  68.80  68.88  67.50  66.50  65.97  65.08  64.66  64.44  64.50  64.91  64.91  64.84  64.88  65.00  64.64  64.26  63.94  63.80  63.98  63.73  63.21  62.81  62.82  62.40  62.10  62.02  62.06  61.87  61.93  62.22  62.53  62.51  62.33  62.15  62.11  62.28  62.52  62.58  62.47  62.32  62.53  62.57  62.60  62.61  62.55  62.49  62.10  61.87  62.11  62.80  62.18  61.98  62.26  62.32  62.21  62.19  62.23  62.30  62.54  62.83  63.07  63.24  63.34  63.52  63.71  63.80  63.70  63.69  63.51  63.38  63.48  63.79  64.03  63.91  63.37  62.71  62.64  62.48  62.26  62.16  61.85  61.69  61.66  61.73  61.69  61.87  61.87  61.58  61.13  61.47  61.72  61.65  61.14  61.03  61.49  62.07  61.69  56.34  59.92  61.72  60.52  59.00  59.74  59.44  57.92  55.50  55.50  57.15  59.13  60.44  59.78  60.94  61.45  61.05  59.92  59.36  59.24  59.27  59.28  59.38  59.03  58.69  58.63  59.28  58.98  58.67  58.34  57.80  57.69  57.55  57.69  58.07  57.81  57.77  57.46  57.02  57.12  57.81  57.95  57.91  58.23  58.34  58.17  58.11  58.25  57.96  57.57  57.20  56.98  56.99  56.59  56.11  55.61  55.48  55.32  54.84  54.40  54.24  53.69  53.48